
     Program PWSCF v.6.5 starts on  1Oct2021 at  9:12: 1 

     This program is part of the open-source Quantum ESPRESSO suite
     for quantum simulation of materials; please cite
         "P. Giannozzi et al., J. Phys.:Condens. Matter 21 395502 (2009);
         "P. Giannozzi et al., J. Phys.:Condens. Matter 29 465901 (2017);
          URL http://www.quantum-espresso.org", 
     in publications or presentations arising from this work. More details at
     http://www.quantum-espresso.org/quote

     Parallel version (MPI), running on     2 processors

     MPI processes distributed on     1 nodes
     R & G space division:  proc/nbgrp/npool/nimage =       2
     Reading input from qe_in.in
Warning: card &IONS ignored
Warning: card / ignored
Warning: card &CELL ignored
Warning: card / ignored

     Current dimensions of program PWSCF are:
     Max number of different atomic species (ntypx) = 10
     Max number of k-points (npk) =  40000
     Max angular momentum in pseudopotentials (lmaxx) =  3

     Subspace diagonalization in iterative solution of the eigenvalue problem:
     a serial algorithm will be used

 
     Parallelization info
     --------------------
     sticks:   dense  smooth     PW     G-vecs:    dense   smooth      PW
     Min         374     374     92                 7708     7708     966
     Max         375     375     93                 7711     7711     969
     Sum         749     749    185                15419    15419    1935
 


     bravais-lattice index     =            0
     lattice parameter (alat)  =       7.6534  a.u.
     unit-cell volume          =     448.2928 (a.u.)^3
     number of atoms/cell      =            4
     number of atomic types    =            1
     number of electrons       =        44.00
     number of Kohn-Sham states=           26
     kinetic-energy cutoff     =      40.0000  Ry
     charge density cutoff     =     160.0000  Ry
     convergence threshold     =      1.0E-08
     mixing beta               =       0.7000
     number of iterations used =            8  plain     mixing
     Exchange-correlation= PBE
                           (   1   4   3   4   0   0   0)

     celldm(1)=   7.653391  celldm(2)=   0.000000  celldm(3)=   0.000000
     celldm(4)=   0.000000  celldm(5)=   0.000000  celldm(6)=   0.000000

     crystal axes: (cart. coord. in units of alat)
               a(1) = (   1.000000   0.000000   0.000000 )  
               a(2) = (   0.000000   1.000000   0.000000 )  
               a(3) = (   0.000000   0.000000   1.000000 )  

     reciprocal axes: (cart. coord. in units 2 pi/alat)
               b(1) = (  1.000000  0.000000  0.000000 )  
               b(2) = (  0.000000  1.000000  0.000000 )  
               b(3) = (  0.000000  0.000000  1.000000 )  


     PseudoPot. # 1 for Al read from file:
     ./Al_ONCV_PBE-1.2.upf
     MD5 check sum: 2d9e7bc02555220d62fad08c3c4858e7
     Pseudo is Norm-conserving, Zval = 11.0
     Generated using ONCVPSP code by D. R. Hamann
     Using radial grid of  602 points,  4 beta functions with: 
                l(1) =   0
                l(2) =   0
                l(3) =   1
                l(4) =   1

     atomic species   valence    mass     pseudopotential
        Al            11.00    26.98150     Al( 1.00)

     No symmetry found



   Cartesian axes

     site n.     atom                  positions (alat units)
         1           Al  tau(   1) = (   0.0493827   0.0000000   0.0000000  )
         2           Al  tau(   2) = (   0.5000000   0.5000000   0.0000000  )
         3           Al  tau(   3) = (   0.5000000   0.0000000   0.5000000  )
         4           Al  tau(   4) = (   0.0000000   0.5000000   0.5000000  )

     number of k points=     1  Gaussian smearing, width (Ry)=  0.0010
                       cart. coord. in units 2pi/alat
        k(    1) = (   0.0000000   0.0000000   0.0000000), wk =   2.0000000

     Dense  grid:    15419 G-vectors     FFT dimensions: (  32,  32,  32)

     Estimated max dynamical RAM per process >       9.08 MB

     Estimated total dynamical RAM >      18.15 MB

     Initial potential from superposition of free atoms

     starting charge   43.67391, renormalised to   44.00000
     Starting wfcs are random

     total cpu time spent up to now is        0.1 secs

     Self-consistent Calculation

     iteration #  1     ecut=    40.00 Ry     beta= 0.70
     Davidson diagonalization with overlap
     ethr =  1.00E-02,  avg # of iterations =  6.0

     Threshold (ethr) on eigenvalues was too large:
     Diagonalizing with lowered threshold

     Davidson diagonalization with overlap
     ethr =  4.23E-04,  avg # of iterations =  1.0

     total cpu time spent up to now is        0.1 secs

     total energy              =    -552.87924748 Ry
     Harris-Foulkes estimate   =    -552.98381484 Ry
     estimated scf accuracy    <       0.18492678 Ry

     iteration #  2     ecut=    40.00 Ry     beta= 0.70
     Davidson diagonalization with overlap
     ethr =  4.20E-04,  avg # of iterations =  2.0

     total cpu time spent up to now is        0.2 secs

     total energy              =    -552.93286390 Ry
     Harris-Foulkes estimate   =    -553.01070784 Ry
     estimated scf accuracy    <       0.26332099 Ry

     iteration #  3     ecut=    40.00 Ry     beta= 0.70
     Davidson diagonalization with overlap
     ethr =  4.20E-04,  avg # of iterations =  2.0

     total cpu time spent up to now is        0.2 secs

     total energy              =    -552.92956800 Ry
     Harris-Foulkes estimate   =    -552.96078492 Ry
     estimated scf accuracy    <       0.16637209 Ry

     iteration #  4     ecut=    40.00 Ry     beta= 0.70
     Davidson diagonalization with overlap
     ethr =  3.78E-04,  avg # of iterations =  1.0

     total cpu time spent up to now is        0.2 secs

     total energy              =    -552.91421868 Ry
     Harris-Foulkes estimate   =    -552.94427522 Ry
     estimated scf accuracy    <       0.10487140 Ry

     iteration #  5     ecut=    40.00 Ry     beta= 0.70
     Davidson diagonalization with overlap
     ethr =  2.38E-04,  avg # of iterations =  2.0

     total cpu time spent up to now is        0.2 secs

     total energy              =    -552.94506487 Ry
     Harris-Foulkes estimate   =    -552.97368043 Ry
     estimated scf accuracy    <       0.16629836 Ry

     iteration #  6     ecut=    40.00 Ry     beta= 0.70
     Davidson diagonalization with overlap
     ethr =  2.38E-04,  avg # of iterations =  1.0

     total cpu time spent up to now is        0.2 secs

     total energy              =    -552.93908879 Ry
     Harris-Foulkes estimate   =    -552.94620994 Ry
     estimated scf accuracy    <       0.10418341 Ry

     iteration #  7     ecut=    40.00 Ry     beta= 0.70
     Davidson diagonalization with overlap
     ethr =  2.37E-04,  avg # of iterations =  1.0

     total cpu time spent up to now is        0.3 secs

     total energy              =    -552.92719251 Ry
     Harris-Foulkes estimate   =    -552.93934266 Ry
     estimated scf accuracy    <       0.08334595 Ry

     iteration #  8     ecut=    40.00 Ry     beta= 0.70
     Davidson diagonalization with overlap
     ethr =  1.89E-04,  avg # of iterations =  1.0

     total cpu time spent up to now is        0.3 secs

     total energy              =    -552.93286366 Ry
     Harris-Foulkes estimate   =    -552.94115403 Ry
     estimated scf accuracy    <       0.07194291 Ry

     iteration #  9     ecut=    40.00 Ry     beta= 0.70
     Davidson diagonalization with overlap
     ethr =  1.64E-04,  avg # of iterations =  1.0

     total cpu time spent up to now is        0.3 secs

     total energy              =    -552.93416271 Ry
     Harris-Foulkes estimate   =    -552.93571180 Ry
     estimated scf accuracy    <       0.04297166 Ry

     iteration # 10     ecut=    40.00 Ry     beta= 0.70
     Davidson diagonalization with overlap
     ethr =  9.77E-05,  avg # of iterations =  1.0

     total cpu time spent up to now is        0.3 secs

     total energy              =    -552.93665068 Ry
     Harris-Foulkes estimate   =    -552.93521326 Ry
     estimated scf accuracy    <       0.00933193 Ry

     iteration # 11     ecut=    40.00 Ry     beta= 0.70
     Davidson diagonalization with overlap
     ethr =  2.12E-05,  avg # of iterations =  4.0

     total cpu time spent up to now is        0.3 secs

     total energy              =    -552.94190125 Ry
     Harris-Foulkes estimate   =    -552.93907293 Ry
     estimated scf accuracy    <       0.07896254 Ry

     iteration # 12     ecut=    40.00 Ry     beta= 0.70
     Davidson diagonalization with overlap
     ethr =  2.12E-05,  avg # of iterations =  1.0

     total cpu time spent up to now is        0.4 secs

     total energy              =    -552.94343850 Ry
     Harris-Foulkes estimate   =    -552.94234044 Ry
     estimated scf accuracy    <       0.08817263 Ry

     iteration # 13     ecut=    40.00 Ry     beta= 0.70
     Davidson diagonalization with overlap
     ethr =  2.12E-05,  avg # of iterations =  1.0

     total cpu time spent up to now is        0.4 secs

     total energy              =    -552.94434855 Ry
     Harris-Foulkes estimate   =    -552.94348510 Ry
     estimated scf accuracy    <       0.09262270 Ry

     iteration # 14     ecut=    40.00 Ry     beta= 0.70
     Davidson diagonalization with overlap
     ethr =  2.12E-05,  avg # of iterations =  1.0

     total cpu time spent up to now is        0.4 secs

     total energy              =    -552.94291122 Ry
     Harris-Foulkes estimate   =    -552.94437930 Ry
     estimated scf accuracy    <       0.09457254 Ry

     iteration # 15     ecut=    40.00 Ry     beta= 0.70
     Davidson diagonalization with overlap
     ethr =  2.12E-05,  avg # of iterations =  1.0

     total cpu time spent up to now is        0.4 secs

     total energy              =    -552.93105157 Ry
     Harris-Foulkes estimate   =    -552.94292039 Ry
     estimated scf accuracy    <       0.09109128 Ry

     iteration # 16     ecut=    40.00 Ry     beta= 0.70
     Davidson diagonalization with overlap
     ethr =  2.12E-05,  avg # of iterations =  2.0

     total cpu time spent up to now is        0.4 secs

     total energy              =    -552.93659667 Ry
     Harris-Foulkes estimate   =    -552.93620433 Ry
     estimated scf accuracy    <       0.06161329 Ry

     iteration # 17     ecut=    40.00 Ry     beta= 0.70
     Davidson diagonalization with overlap
     ethr =  2.12E-05,  avg # of iterations =  1.0

     total cpu time spent up to now is        0.5 secs

     total energy              =    -552.93591273 Ry
     Harris-Foulkes estimate   =    -552.93667883 Ry
     estimated scf accuracy    <       0.06809693 Ry

     iteration # 18     ecut=    40.00 Ry     beta= 0.70
     Davidson diagonalization with overlap
     ethr =  2.12E-05,  avg # of iterations =  1.0

     total cpu time spent up to now is        0.5 secs

     total energy              =    -552.93188381 Ry
     Harris-Foulkes estimate   =    -552.93593198 Ry
     estimated scf accuracy    <       0.05780314 Ry

     iteration # 19     ecut=    40.00 Ry     beta= 0.70
     Davidson diagonalization with overlap
     ethr =  2.12E-05,  avg # of iterations =  1.0

     total cpu time spent up to now is        0.5 secs

     total energy              =    -552.93386520 Ry
     Harris-Foulkes estimate   =    -552.93637690 Ry
     estimated scf accuracy    <       0.06702618 Ry

     iteration # 20     ecut=    40.00 Ry     beta= 0.70
     Davidson diagonalization with overlap
     ethr =  2.12E-05,  avg # of iterations =  1.0

     total cpu time spent up to now is        0.5 secs

     total energy              =    -552.93478466 Ry
     Harris-Foulkes estimate   =    -552.93478265 Ry
     estimated scf accuracy    <       0.00015282 Ry

     iteration # 21     ecut=    40.00 Ry     beta= 0.70
     Davidson diagonalization with overlap
     ethr =  3.47E-07,  avg # of iterations =  1.0

     total cpu time spent up to now is        0.5 secs

     total energy              =    -552.93488827 Ry
     Harris-Foulkes estimate   =    -552.93480170 Ry
     estimated scf accuracy    <       0.00163576 Ry

     iteration # 22     ecut=    40.00 Ry     beta= 0.70
     Davidson diagonalization with overlap
     ethr =  3.47E-07,  avg # of iterations =  1.0

     total cpu time spent up to now is        0.6 secs

     total energy              =    -552.93469036 Ry
     Harris-Foulkes estimate   =    -552.93498875 Ry
     estimated scf accuracy    <       0.01542020 Ry

     iteration # 23     ecut=    40.00 Ry     beta= 0.70
     Davidson diagonalization with overlap
     ethr =  3.47E-07,  avg # of iterations =  1.0

     total cpu time spent up to now is        0.6 secs

     total energy              =    -552.93476275 Ry
     Harris-Foulkes estimate   =    -552.93479166 Ry
     estimated scf accuracy    <       0.00141157 Ry

     iteration # 24     ecut=    40.00 Ry     beta= 0.70
     Davidson diagonalization with overlap
     ethr =  3.47E-07,  avg # of iterations =  1.0

     total cpu time spent up to now is        0.6 secs

     total energy              =    -552.93477005 Ry
     Harris-Foulkes estimate   =    -552.93477454 Ry
     estimated scf accuracy    <       0.00004564 Ry

     iteration # 25     ecut=    40.00 Ry     beta= 0.70
     Davidson diagonalization with overlap
     ethr =  1.04E-07,  avg # of iterations =  1.0

     total cpu time spent up to now is        0.6 secs

     total energy              =    -552.93476853 Ry
     Harris-Foulkes estimate   =    -552.93477954 Ry
     estimated scf accuracy    <       0.00043747 Ry

     iteration # 26     ecut=    40.00 Ry     beta= 0.70
     Davidson diagonalization with overlap
     ethr =  1.04E-07,  avg # of iterations =  1.0

     total cpu time spent up to now is        0.6 secs

     total energy              =    -552.93477389 Ry
     Harris-Foulkes estimate   =    -552.93477390 Ry
     estimated scf accuracy    <       0.00000019 Ry

     iteration # 27     ecut=    40.00 Ry     beta= 0.70
     Davidson diagonalization with overlap
     ethr =  4.36E-10,  avg # of iterations =  1.0

     total cpu time spent up to now is        0.7 secs

     total energy              =    -552.93477357 Ry
     Harris-Foulkes estimate   =    -552.93477404 Ry
     estimated scf accuracy    <       0.00001084 Ry

     iteration # 28     ecut=    40.00 Ry     beta= 0.70
     Davidson diagonalization with overlap
     ethr =  4.36E-10,  avg # of iterations =  1.0

     total cpu time spent up to now is        0.7 secs

     total energy              =    -552.93477383 Ry
     Harris-Foulkes estimate   =    -552.93477395 Ry
     estimated scf accuracy    <       0.00000493 Ry

     iteration # 29     ecut=    40.00 Ry     beta= 0.70
     Davidson diagonalization with overlap
     ethr =  4.36E-10,  avg # of iterations =  1.0

     total cpu time spent up to now is        0.7 secs

     End of self-consistent calculation

          k = 0.0000 0.0000 0.0000 (  1935 PWs)   bands (ev):

   -92.6272 -92.5899 -92.4908 -92.4831 -54.2459 -54.1827 -54.1827 -54.1803
   -54.1606 -54.1562 -54.1093 -54.1093 -54.1000 -54.1000 -54.0870 -54.0869
    -0.2340   7.9567   7.9641   7.9641   9.2793   9.2918   9.2929  15.9911
    15.9911  16.1919

     the Fermi energy is     9.2932 ev

!    total energy              =    -552.93477389 Ry
     Harris-Foulkes estimate   =    -552.93477389 Ry
     estimated scf accuracy    <          1.5E-09 Ry

     The total energy is the sum of the following terms:

     one-electron contribution =    -339.44089663 Ry
     hartree contribution      =     138.57826644 Ry
     xc contribution           =     -62.60690761 Ry
     ewald contribution        =    -289.46391727 Ry
     smearing contrib. (-TS)   =      -0.00131882 Ry

     convergence has been achieved in  29 iterations
 
 Energies determined by pw2casino tool
 -------------------------------------
 Kinetic energy      118.316481111463       au  =     236.632962222926       Ry
 Local energy       -227.191535228474       au  =    -454.383070456948       Ry
 Non-Local energy   -60.8453941995885       au  =    -121.690788399177       Ry
 Ewald energy       -144.731958633718       au  =    -289.463917267436       Ry
 xc contribution    -31.3034538027823       au  =    -62.6069076055647       Ry
 hartree energy      69.2891332175088       au  =     138.578266435018       Ry
 Smearing (-TS)    -6.594090599090169E-004  au  =   -1.318818119818034E-003  Ry
 Total energy       -276.467386944651       au  =    -552.934773889301       Ry
 

     Forces acting on atoms (cartesian axes, Ry/au):

     atom    1 type  1   force =    -0.00834805   -0.00000052   -0.00000022
     atom    2 type  1   force =     0.00784274    0.00000046   -0.00000016
     atom    3 type  1   force =     0.00784296   -0.00000039    0.00000002
     atom    4 type  1   force =    -0.00733765    0.00000045    0.00000036

     Total force =     0.015702     Total SCF correction =     0.000119


     Computing stress (Cartesian axis) and pressure

          total   stress  (Ry/bohr**3)                   (kbar)     P=     -251.12
  -0.00000025  -0.00000000  -0.00000000           -0.04       -0.00       -0.00
  -0.00000000  -0.00256037   0.00000000           -0.00     -376.64        0.00
  -0.00000000   0.00000000  -0.00256055           -0.00        0.00     -376.67

